<?xml version="1.0" encoding="UTF-8"?>
<tripinfos xmlns:xsi="http://www.w3.org/2001/XMLSchema-instance">
    <tripinfo id="veh_0" depart="0.00" departLane="e_0_0" departPos="5.10" departSpeed="0.00"
              departDelay="0.00" arrival="120.00" arrivalLane="e_1_0" arrivalPos="95.50"
              arrivalSpeed="13.89" duration="120.00" routeLength="500.00" waitingTime="10.00"
              waitingCount="2" stopTime="0.00" timeLoss="15.50" rerouteNo="0"
              devices="tripinfo" vType="passenger" speedFactor="1.00" vaporized=""/>
    <tripinfo id="veh_1" depart="10.00" departLane="e_1_0" departPos="5.10" departSpeed="0.00"
              departDelay="0.00" arrival="135.00" arrivalLane="e_2_0" arrivalPos="95.50"
              arrivalSpeed="13.89" duration="125.00" routeLength="520.00" waitingTime="12.00"
              waitingCount="3" stopTime="0.00" timeLoss="18.20" rerouteNo="0"
              devices="tripinfo" vType="passenger" speedFactor="1.00" vaporized=""/>
    <tripinfo id="veh_2" depart="20.00" departLane="e_0_0" departPos="5.10" departSpeed="0.00"
              departDelay="0.00" arrival="150.00" arrivalLane="e_3_0" arrivalPos="95.50"
              arrivalSpeed="13.89" duration="130.00" routeLength="540.00" waitingTime="14.00"
              waitingCount="4" stopTime="0.00" timeLoss="20.30" rerouteNo="0"
              devices="tripinfo" vType="passenger" speedFactor="1.00" vaporized=""/>
</tripinfos>
